MPI startup(): shm:tcp fabric is unknown or has been removed from the product, please use ofi or shm:ofi instead.
Siesta Version  : v4.1-b4
Architecture    : x86_64-unknown-linux-gnu--unknown
Compiler version: ifort (IFORT) 2021.9.0 20230302
Compiler flags  : mpiifort -g -O2 -fPIC -xSSE4.2 -fp-model source
PP flags        : -DFC_HAVE_FLUSH -DFC_HAVE_ABORT -DMPI  -DCDF -DNCDF -DNCDF_4 -DTRANSIESTA
Libraries       : libncdf.a libfdict.a -Wl,--start-group /opt/intel/oneapi/mkl/2022.1.0/lib/inttel64/libmkl_scalapack_lp64.a /opt/intel/oneapi/mkl/2022.1.0/lib/intel64/libmkl_intel_lp64.a /opt/intel/oneapi/mkl/2022.1.0/lib/intel64/libmkl_core.a /opt/intel/oneapi/mkl/2022.1.0/lib/intel64/libmkl_sequential.a /opt/intel/oneapi/mkl/2022.1.0/lib/intel64/libmkl_blacs_intelmpi_lp64.a -Wl,--end-group -lpthread   /opt/intel/oneapi/mkl/2022.1.0/lib/intel64/libmkl_blas95_lp64.a -Wl,--start-group /opt/intel/oneapi/mkl/2022.1.0/lib/intel64/libmkl_intel_lp64.a /opt/intel/oneapi/mkl/2022.1.0/lib/intel64/libmkl_sequential.a /opt/intel/oneapi/mkl/2022.1.0/lib/intel64/libmkl_core.a -Wl,--end-group -L/home2/rong/opt/netcdf_build/build/build/netcdf/4.4.1.1/lib -L/home2/rong/opt/netcdf_build/build/build/netcdf/4.4.1.1/lib -L/home2/rong/opt/netcdf_build/build/build/hdf5/1.8.19/lib -L/home2/rong/opt/netcdf_build/build/build//zlib/1.2.11/lib /home2/rong/opt/netcdf_build/build/build/netcdf/4.4.1.1/lib/libnetcdff.a /home2/rong/opt/netcdf_build/build/build/netcdf/4.4.1.1/lib/libnetcdf.a /home2/rong/opt/netcdf_build/build/build/hdf5/1.8.19/lib/libhdf5_hl.a /home2/rong/opt/netcdf_build/build/build/hdf5/1.8.19/lib/libhdf5.a /home2/rong/opt/netcdf_build/build/build//zlib/1.2.11/lib/libz.a -lcurl -lnetcdff -lnetcdf -lhdf5_hl -lhdf5 -lz
PARALLEL version
NetCDF support
NetCDF-4 support
******************************************************
transiesta executable is deprecated, please use siesta
******************************************************

* Running on 12 nodes in parallel
>> Start of run:   2-JUN-2025  14:11:05

                           ***********************       
                           *  WELCOME TO SIESTA  *       
                           ***********************       

reinit: Reading from standard input
reinit: Dumped input in INPUT_TMP.17262
************************** Dump of input data file ****************************
#(1) General system descriptors
SystemName            Solid  # Descriptive name of the system
SystemLabel           Solid  # Short name for naming files
%include STRUCT.fdf
%include KPT.fdf
%include BASIS.fdf
#%include TS.fdf # for transiesta calculation
#(4) DFT, Grid, SCF
XC.functional         LDA           # LDA or GGA (default = LDA)
XC.authors            CA           # CA (Ceperley-Aldr) = PZ
                                    #    (Perdew-Zunger) - LDA - Default
                                    # PW92 (Perdew-Wang-92) - LDA
                                    # PBE (Perdew-Burke-Ernzerhof) - GGA
MeshCutoff            500.00 Ry     # Default: 50.0 Ry ~ 0.444 Bohr
                                    #         100.0 Ry ~ 0.314 Bohr
MaxSCFIterations      500           # Default: 50
DM.MixingWeight       0.25          # Default: 0.25
DM.NumberPulay        20            # Default: 0
DM.PulayOnFile        F             # SystemLabel.P1, SystemLabel.P2
DM.Tolerance          1.d-4         # Default: 1.d-4
DM.UseSaveDM          .true.        # because of the bug
SCFMustConverge       .true.
NeglNonOverlapInt     F             # Default: F
#DM.MixSCF1            T
#TS.CalcGF             F             # Default: T
#(5) Eigenvalue problem: order-N or diagonalization
SolutionMethod        Diagon        # or Transiesta
ElectronicTemperature 300.0 K       # Default: 300.0 K
#(6) Molecular dynamics and relaxations
MD.TypeOfRun          CG            # Type of dynamics:
MD.VariableCell       F
MD.NumCGsteps         0         # 0 for single-point / 100 for gopt
MD.MaxCGDispl         0.2 Bohr      # Default: 0.2 Bohr
MD.MaxForceTol        0.01  eV/Ang   # Default: 0.04 eV/Ang
MD.MaxStressTol       0.1 GPa       # Default: 1.0 GPa
#MD.PreconditionVariableCell 5.0 Ang
#MD.TargetPressure 0.0 Gpa
User.Basis            T
#LDOS option
#%block LocalDensityOfStates
# -4.7800 -4.6800 eV
#%endblock LocalDensityOfStates
# Geometry Constraints
#%block Geometry.Constraints
#	cell-angle alpha beta gamma
#	cell-vector C
#	stress 4 5 6
#%endblock Geometry.Constraints
#%block GeometryConstraints
#	atom [1 -- 208, 320 -- 527]
#	cell-vector C
#%endblock GeometryConstraints
# Band Structure
#Diag.ParallelOverK .true.
#BandLinesScale pi/a
#BandLinesScale ReciprocalLatticeVectors
#WFS.Write.For.Bands .true.
#%block BandLines
##  1    0.33193 0.342600 0.00000
#  71   0.00000 0.000000 0.00000  Z
#  71   0.50000 0.000000 0.00000  Z
#%endblock BandLines
#%block MM.Potentials
#   1 1 Grimme 7.255 2.684
#   1 2 Grimme 3.244 2.343
#   1 3 Grimme 26.344 3.058
#   1 4 Grimme 11.471 2.794
#   2 1 Grimme 3.244 2.343
#   2 2 Grimme 1.451 2.002
#   2 3 Grimme 11.781 2.717
#   2 4 Grimme 5.130 2.453
#   3 1 Grimme 26.344 3.058
#   3 2 Grimme 11.781 2.717
#   3 3 Grimme 95.661 3.432
#   3 4 Grimme 41.653 3.168
#   4 1 Grimme 11.471 2.794
#   4 2 Grimme 5.130 2.453
#   4 3 Grimme 41.653 3.168
#   4 4 Grimme 18.137 2.904
#%endblock MM.Potentials
#MM.Grimme.S6  0.75
# LDOS option
#%block LocalDensityOfStates
#-0.05 0.05 eV                # Around E_F
#%endblock LocalDensityOfStates
# Check the output first, and find out where E_F is located.
# Then, put small window around E_F above.
#SlabDipoleCorrection .true.
#SpinPolarized  .true.
#%block DM.InitSpin
#268 -1
#269 -1
#270 -1
#271 -1
#272 -1
#256 1
#257 1
#258 1
#259 1
#260 1
#%endblock DM.InitSpin
#(9) Output options
#WriteCoorInitial      T      # SystemLabel.out
#WriteKpoints          T      # SystemLabel.out
#WriteEigenvalues      T      # SystemLabel.out [otherwise ~.EIG]
#WriteKbands           T      # SystemLabel.out, band structure
#WriteBands            T      # SystemLabel.bands, band structure
#WriteDM.NetCDF        T      # for Eigenchannel analysis later...
#WriteDMHS.NetCDF      T      # for Eigenchannel analysis later...
AllocReportLevel      0      # SystemLabel.alloc, Default: 0
#WriteMullikenPop      1      # Mulliken population analysis,
#Default : 0 ; 0=None, 1=atomic and orbital charges, 2=1+atomic overlap pop, 3=2+orbital overlap pop
#(10) Options for saving/reading information
#SaveHS                T      # SystemLabel.HS
SaveRho               T      # SystemLabel.RHO, rho2xsf(3D),macroave-charge dendity(1D)
#SaveDeltaRho          T      # SystemLabel.DRHO
#SaveElectrostaticPotential T # SystemLabel.VH , macroave-potential
#SaveNeutralAtomPotential T
#SaveTotalPotential    T      # SystemLabel.VT
WriteMullikenPop	1
SaveBaderCharge   T
bader-core-radius-standard 2.48 Bohr
WriteMDXmol           T      # SystemLabel.ANI, optimization
WriteCoorXmol        .true.  # SystemLavel.xyz
#WriteCoorStep        .true.  # SystemLabel.XV , rho2xsf
************************** End of input data file *****************************

reinit: -----------------------------------------------------------------------
reinit: System Name: Solid
reinit: -----------------------------------------------------------------------
reinit: System Label: Solid
reinit: -----------------------------------------------------------------------

initatom: Reading input for the pseudopotentials and atomic orbitals ----------
Species number:   1 Atomic number:    6 Label: C
 

Reading PAOs and KBs from ascii files...
Species number:   1 Atomic number:    6 Label: C
 
coor:   Atomic-coordinates input format  =     Cartesian coordinates
coor:                                          (in Angstroms)

siesta: Atomic coordinates (Bohr) and species
siesta:      0.00000   0.00000   0.00000  1        1
siesta:      1.67306   1.67306   1.67306  1        2

siesta: System type = bulk      

initatomlists: Number of atoms, orbitals, and projectors:      2    26    32

coxmol: Writing XMOL coordinates into file Solid.xyz                                                           

siesta: ******************** Simulation parameters ****************************
siesta:
siesta: The following are some of the parameters of the simulation.
siesta: A complete list of the parameters used, including default values,
siesta: can be found in file out.fdf
siesta:
redata: Spin configuration                          = none
redata: Number of spin components                   = 1
redata: Time-Reversal Symmetry                      = T
redata: Spin-spiral                                 = F
redata: Long output                                 =   F
redata: Number of Atomic Species                    =        1
redata: Charge density info will appear in .RHO file
redata: Write Mulliken Pop.                         = Atomic and Orbital charges
redata: Matel table size (NRTAB)                    =     1024
redata: Mesh Cutoff                                 =   500.0000 Ry
redata: Net charge of the system                    =     0.0000 |e|
redata: Min. number of SCF Iter                     =        0
redata: Max. number of SCF Iter                     =      500
redata: SCF convergence failure will abort job
redata: SCF mix quantity                            = Hamiltonian
redata: Mix DM or H after convergence               =   F
redata: Recompute H after scf cycle                 =   F
redata: Mix DM in first SCF step                    =   T
redata: Write Pulay info on disk                    =   F
redata: New DM Mixing Weight                        =     0.2500
redata: New DM Occupancy tolerance                  = 0.000000000001
redata: No kicks to SCF
redata: DM Mixing Weight for Kicks                  =     0.5000
redata: Require Harris convergence for SCF          =   F
redata: Harris energy tolerance for SCF             =     0.000100 eV
redata: Require DM convergence for SCF              =   T
redata: DM tolerance for SCF                        =     0.000100
redata: Require EDM convergence for SCF             =   F
redata: EDM tolerance for SCF                       =     0.001000 eV
redata: Require H convergence for SCF               =   T
redata: Hamiltonian tolerance for SCF               =     0.001000 eV
redata: Require (free) Energy convergence for SCF   =   F
redata: (free) Energy tolerance for SCF             =     0.000100 eV
redata: Using Saved Data (generic)                  =   F
redata: Use continuation files for DM               =   T
redata: Neglect nonoverlap interactions             =   F
redata: Method of Calculation                       = Diagonalization
redata: Electronic Temperature                      =   299.9978 K
redata: Fix the spin of the system                  =   F
redata: Dynamics option                             = Single-point calculation
mix.SCF: Pulay mixing                            = Pulay
mix.SCF:    Variant                              = stable
mix.SCF:    History steps                        = 20
mix.SCF:    Linear mixing weight                 =     0.250000
mix.SCF:    Mixing weight                        =     0.250000
mix.SCF:    SVD condition                        = 0.1000E-07
redata: Save all siesta data in one NC              =   F
redata: ***********************************************************************

%block SCF.Mixers
  Pulay
%endblock SCF.Mixers

%block SCF.Mixer.Pulay
  # Mixing method
  method pulay
  variant stable

  # Mixing options
  weight 0.2500
  weight.linear 0.2500
  history 20
%endblock SCF.Mixer.Pulay
 
DM_history_depth set to one: no extrapolation allowed by default for geometry relaxation
Size of DM history Fstack: 1
Total number of electrons:     8.000000
Total ionic charge:     8.000000

* ProcessorY, Blocksize:    3   2


* Orbital distribution balance (max,min):     4     2

 Kpoints in:         1800 . Kpoints trimmed:         1688

siesta: k-grid: Number of k-points =  1688
siesta: k-grid: Cutoff (effective) =    18.781 Ang
siesta: k-grid: Supercell and displacements
siesta: k-grid:   15   0   0      0.000
siesta: k-grid:    0  15   0      0.000
siesta: k-grid:    0   0  15      0.000
 
diag: Algorithm                                     = D&C
diag: Parallel over k                               =   F
diag: Use parallel 2D distribution                  =   T
diag: Parallel block-size                           = 2
diag: Parallel distribution                         =     3 x     4
diag: Used triangular part                          = Lower
diag: Absolute tolerance                            =  0.100E-15
diag: Orthogonalization factor                      =  0.100E-05
diag: Memory factor                                 =  1.0000

superc: Internal auxiliary supercell:     9 x     9 x     9  =     729
superc: Number of atoms, orbitals, and projectors:   1458  18954  23328
 
 
ts: **************************************************************
ts: Save H and S matrices                           =    T
ts: Save DM and EDM matrices                        =    T
ts: Fix Hartree potential                           =    F
ts: Only save the overlap matrix S                  =    F
ts: **************************************************************
 
************************ Begin: TS CHECKS AND WARNINGS ************************
************************ End: TS CHECKS AND WARNINGS **************************


                     ====================================
                        Single-point calculation
                     ====================================

superc: Internal auxiliary supercell:     9 x     9 x     9  =     729
superc: Number of atoms, orbitals, and projectors:   1458  18954  23328

outcell: Unit cell vectors (Ang):
        1.770694    1.770694    0.000000
        0.000000    1.770694    1.770694
        1.770694    0.000000    1.770694

outcell: Cell vector modules (Ang)   :    2.504139    2.504139    2.504139
outcell: Cell angles (23,13,12) (deg):     60.0000     60.0000     60.0000
outcell: Cell volume (Ang**3)        :     11.1035
<dSpData1D:S at geom step 0
  <sparsity:sparsity for geom step 0
    nrows_g=26 nrows=4 sparsity=29.1213 nnzs=19686, refcount: 7>
  <dData1D:(new from dSpData1D) n=19686, refcount: 1>
refcount: 1>
new_DM -- step:     1
Initializing Density Matrix...
 
Attempting to read DM from file... Failed...
DM filled with atomic data:
<dSpData2D:DM initialized from atoms
  <sparsity:sparsity for geom step 0
    nrows_g=26 nrows=4 sparsity=29.1213 nnzs=19686, refcount: 8>
  <dData2D:DM n=19686 m=1, refcount: 1>
refcount: 1>
No. of atoms with KB's overlaping orbs in proc 0. Max # of overlaps:      90     859
New grid distribution:   1
           1       1:   15    1:    5    1:    4
           2       1:   15    1:    5    5:    8
           3       1:   15    1:    5    9:   12
           4       1:   15    1:    5   13:   15
           5       1:   15    6:   10    1:    4
           6       1:   15    6:   10    5:    8
           7       1:   15    6:   10    9:   12
           8       1:   15    6:   10   13:   15
           9       1:   15   11:   15    1:    4
          10       1:   15   11:   15    5:    8
          11       1:   15   11:   15    9:   12
          12       1:   15   11:   15   13:   15

InitMesh: MESH =    30 x    30 x    30 =       27000
InitMesh: (bp) =    15 x    15 x    15 =        3375
InitMesh: Mesh cutoff (required, used) =   500.000   595.002 Ry
ExtMesh (bp) on 0 =   123 x   113 x   112 =     1556688
New grid distribution:   2
           1       6:   15    1:    8    1:    4
           2       6:   15    1:    8    5:    8
           3       6:   15    9:   15    5:    8
           4       6:   15    1:    8    9:   11
           5       6:   15    9:   15    1:    4
           6       6:   15    9:   15   13:   15
           7       1:    5    1:    8    9:   15
           8       6:   15    1:    8   12:   15
           9       1:    5    1:    8    1:    8
          10       1:    5    9:   15    1:    8
          11       6:   15    9:   15    9:   12
          12       1:    5    9:   15    9:   15
New grid distribution:   3
           1       6:   15    1:    8    1:    4
           2       6:   15    1:    8    5:    8
           3       6:   15    9:   15    5:    8
           4       6:   15    1:    8   13:   15
           5       6:   15    9:   15    1:    4
           6       6:   15    9:   15   13:   15
           7       6:   15    1:    8    9:   12
           8       1:    5    1:    8    9:   15
           9       1:    5    1:    8    1:    8
          10       1:    5    9:   15    1:    8
          11       6:   15    9:   15    9:   12
          12       1:    5    9:   15    9:   15
Setting up quadratic distribution...
ExtMesh (bp) on 0 =   118 x   116 x   112 =     1533056
PhiOnMesh: Number of (b)points on node 0 =                  320
PhiOnMesh: nlist on node 0 =               104905
 DHSCF
 DHSCF
 DHSCF
 DHSCF
 DHSCF
 DHSCF
 DHSCF
 DHSCF
 DHSCF
 DHSCF
 DHSCF
 DHSCF

stepf: Fermi-Dirac step function
 DHSCF
 DHSCF
 DHSCF
 DHSCF
 DHSCF
 DHSCF
 DHSCF
 DHSCF
 DHSCF
 DHSCF
 DHSCF
 DHSCF
 Compute Energy
 Compute Energy
 Compute Energy
 Compute Energy
 Compute Energy
 Compute Energy
 Compute Energy
 Compute Energy
 Compute Energy
 Compute Energy
 Compute Energy
 Compute Energy
 EBS
  -131.695673447812     
 EBS
  -131.695673447812     
  -310.890532561313     
 EBS
 EBS
  -131.695673447812     
  -310.890532561313     
 EBS
  -131.695673447812     
  -310.890532561313     
 EBS
  -131.695673447812     
  -310.890532561313     
 EBS
  -131.695673447812     
  -310.890532561313     
 EBS
  -131.695673447812     
  -310.890532561313     
 EBS
  -131.695673447812     
  -310.890532561313     
 EBS
  -131.695673447812     
  -310.890532561313     
 EBS
  -131.695673447812     
  -310.890532561313     
 EBS
  -131.695673447812     
  -310.890532561313     
  -310.890532561313     
  -131.695673447812     
  -310.890532561313     

siesta: Program's energy decomposition (eV):
siesta: Ebs     =      -131.695673
siesta: Eions   =       511.194752
siesta: Ena     =       109.726373
siesta: Ekin    =       227.829100
siesta: Enl     =       -28.713468
siesta: Eso     =         0.000000
siesta: Eldau   =         0.000000
siesta: DEna    =       -12.700417
siesta: DUscf   =         1.230580
siesta: DUext   =         0.000000
siesta: Enegf   =         0.000000
siesta: Exc     =       -97.067947
siesta: Dxc     =        29.853266
siesta: Enascf  =      -214.889933
siesta: eta*DQ  =         0.000000
siesta: Emadel  =         0.000000
siesta: Emeta   =         0.000000
siesta: Emolmec =         0.000000
siesta: Ekinion =         0.000000
siesta: Eharris =      -299.901188
siesta: Etot    =      -310.890533
siesta: FreeEng =      -310.890533
siesta: Uatm    =        17.290234
siesta: Enaatm  =      -202.189516

        iscf     Eharris(eV)        E_KS(eV)     FreeEng(eV)     dDmax    Ef(eV) dHmax(eV)
   scf:    1     -299.901188     -310.890533     -310.890533  1.656125 -6.064802  1.324367
timer: Routine,Calls,Time,% = IterSCF        1      19.791  84.40
 DHSCF
 DHSCF
 DHSCF
 DHSCF
 DHSCF
 DHSCF
 DHSCF
 DHSCF
 DHSCF
 DHSCF
 DHSCF
 DHSCF
 Compute Energy
 Compute Energy
 Compute Energy
 Compute Energy
 Compute Energy
 Compute Energy
 Compute Energy
 Compute Energy
 Compute Energy
 Compute Energy
 Compute Energy
 Compute Energy
 EBS
  -132.260320455682     
 EBS
  -132.260320455682     
  -310.950166745572     
 EBS
 EBS
  -132.260320455682     
  -310.950166745572     
 EBS
  -132.260320455682     
  -310.950166745572     
 EBS
  -132.260320455682     
  -310.950166745572     
 EBS
  -132.260320455682     
  -310.950166745572     
 EBS
  -132.260320455682     
  -310.950166745572     
 EBS
  -132.260320455682     
  -310.950166745572     
 EBS
  -132.260320455682     
  -310.950166745572     
 EBS
  -132.260320455682     
  -310.950166745572     
 EBS
  -132.260320455682     
  -310.950166745572     
  -310.950166745572     
  -132.260320455682     
  -310.950166745572     
   scf:    2     -311.007934     -310.950167     -310.950167  0.070850 -5.849014  0.920787
 DHSCF
 DHSCF
 DHSCF
 DHSCF
 DHSCF
 DHSCF
 DHSCF
 DHSCF
 DHSCF
 DHSCF
 DHSCF
 DHSCF
 Compute Energy
 Compute Energy
 Compute Energy
 Compute Energy
 Compute Energy
 Compute Energy
 Compute Energy
 Compute Energy
 Compute Energy
 Compute Energy
 Compute Energy
 Compute Energy
 EBS
  -133.497499525882     
 EBS
  -133.497499525882     
  -311.008060061040     
 EBS
  -133.497499525882     
  -311.008060061040     
 EBS
  -133.497499525882     
  -311.008060061040     
 EBS
  -133.497499525882     
  -311.008060061040     
 EBS
  -133.497499525882     
  -311.008060061040     
 EBS
  -133.497499525882     
  -311.008060061040     
 EBS
  -133.497499525882     
  -311.008060061040     
 EBS
  -133.497499525882     
  -311.008060061040     
 EBS
  -133.497499525882     
  -311.008060061040     
 EBS
  -133.497499525882     
  -311.008060061040     
 EBS
  -311.008060061040     
  -133.497499525882     
  -311.008060061040     
   scf:    3     -311.055436     -311.008060     -311.008060  0.129504 -5.366419  0.007731
 DHSCF
 DHSCF
 DHSCF
 DHSCF
 DHSCF
 DHSCF
 DHSCF
 DHSCF
 DHSCF
 DHSCF
 DHSCF
 DHSCF
 Compute Energy
 Compute Energy
 Compute Energy
 Compute Energy
 Compute Energy
 Compute Energy
 Compute Energy
 Compute Energy
 Compute Energy
 Compute Energy
 Compute Energy
 Compute Energy
 EBS
  -133.485533879929     
 EBS
  -133.485533879929     
  -311.008058314198     
 EBS
 EBS
  -133.485533879929     
  -311.008058314198     
 EBS
  -133.485533879929     
  -311.008058314198     
 EBS
  -133.485533879929     
  -311.008058314198     
 EBS
  -133.485533879929     
  -311.008058314198     
 EBS
  -133.485533879929     
  -311.008058314198     
 EBS
  -133.485533879929     
  -311.008058314198     
 EBS
  -133.485533879929     
  -311.008058314198     
 EBS
  -133.485533879929     
  -311.008058314198     
 EBS
  -133.485533879929     
  -311.008058314198     
  -311.008058314198     
  -133.485533879929     
  -311.008058314198     
   scf:    4     -311.008055     -311.008058     -311.008058  0.003389 -5.373383  0.007245
 DHSCF
 DHSCF
 DHSCF
 DHSCF
 DHSCF
 DHSCF
 DHSCF
 DHSCF
 DHSCF
 DHSCF
 DHSCF
 DHSCF
 Compute Energy
 Compute Energy
 Compute Energy
 Compute Energy
 Compute Energy
 Compute Energy
 Compute Energy
 Compute Energy
 Compute Energy
 Compute Energy
 Compute Energy
 Compute Energy
 EBS
  -133.496465207120     
  -311.008064246044     
 EBS
  -133.496465207120     
  -311.008064246044     
 EBS
  -133.496465207120     
  -311.008064246044     
 EBS
 EBS
  -133.496465207120     
  -311.008064246044     
 EBS
  -133.496465207120     
  -311.008064246044     
 EBS
  -133.496465207120     
  -311.008064246044     
 EBS
  -133.496465207120     
  -311.008064246044     
 EBS
  -133.496465207120     
  -311.008064246044     
 EBS
  -133.496465207120     
  -311.008064246044     
 EBS
  -133.496465207120     
  -311.008064246044     
 EBS
  -133.496465207120     
  -311.008064246044     
  -133.496465207120     
  -311.008064246044     
   scf:    5     -311.008069     -311.008064     -311.008064  0.000710 -5.370507  0.000200
 DHSCF
 DHSCF
 DHSCF
 DHSCF
 DHSCF
 DHSCF
 DHSCF
 DHSCF
 DHSCF
 DHSCF
 DHSCF
 DHSCF
 Compute Energy
 Compute Energy
 Compute Energy
 Compute Energy
 Compute Energy
 Compute Energy
 Compute Energy
 Compute Energy
 Compute Energy
 Compute Energy
 Compute Energy
 Compute Energy
 EBS
  -133.496590273830     
  -311.008064248678     
 EBS
  -133.496590273830     
  -311.008064248678     
 EBS
  -133.496590273830     
  -311.008064248678     
 EBS
  -133.496590273830     
  -311.008064248678     
 EBS
  -133.496590273830     
  -311.008064248678     
 EBS
  -133.496590273830     
  -311.008064248678     
 EBS
  -133.496590273830     
  -311.008064248678     
 EBS
  -133.496590273830     
  -311.008064248678     
 EBS
 EBS
  -133.496590273830     
  -311.008064248678     
 EBS
  -133.496590273830     
  -311.008064248678     
 EBS
  -133.496590273830     
  -311.008064248678     
  -133.496590273830     
  -311.008064248678     
   scf:    6     -311.008064     -311.008064     -311.008064  0.000011 -5.370481  0.000108

SCF Convergence by DM+H criterion
max |DM_out - DM_in|         :     0.0000109990
max |H_out - H_in|      (eV) :     0.0001080912
SCF cycle converged after 6 iterations
 Left Charge:    8.00000000000001     
 Right Charge:   0.000000000000000E+000
 Gate Charge:   0.000000000000000E+000
 RGLee - modfied post-scf work
 RGLee - modfied post-scf work
 RGLee - modfied post-scf work
 RGLee - modfied post-scf work
 RGLee - modfied post-scf work
 RGLee - modfied post-scf work
 RGLee - modfied post-scf work
 RGLee - modfied post-scf work
 RGLee - modfied post-scf work
 RGLee - modfied post-scf work
 RGLee - modfied post-scf work
 RGLee - modfied post-scf work

Using DM_out to compute the final energy and forces
No. of atoms with KB's overlaping orbs in proc 0. Max # of overlaps:      90     859
 DHSCF
 DHSCF
 DHSCF
 DHSCF
 DHSCF
 DHSCF
 DHSCF
 DHSCF
 DHSCF
 DHSCF
 DHSCF
 DHSCF
  -311.008064248682     
  -311.008064248682     
  -311.008064248682     
  -311.008064248682     
  -311.008064248682     
  -311.008064248682     
  -311.008064248682     
  -311.008064248682     
  -311.008064248682     
  -311.008064248682     
  -311.008064248682     
  -311.008064248682     

siesta: E_KS(eV) =             -311.0081

siesta: E_KS - E_eggbox =      -311.0081

siesta: Atomic forces (eV/Ang):
----------------------------------------
   Tot   -0.000000   -0.000000   -0.000000
----------------------------------------
   Max    0.000003
   Res    0.000003    sqrt( Sum f_i^2 / 3N )
----------------------------------------
   Max    0.000003    constrained

Stress-tensor-Voigt (kbar):        1.94        1.94        1.94        0.00        0.00        0.00
(Free)E + p*V (eV/cell)     -311.0215
Target enthalpy (eV/cell)     -311.0081
 
mulliken: Atomic and Orbital Populations:

Species: C                   
Atom  Qatom  Qorb
               2s      2s      2py     2pz     2px     2py     2pz     2px     
               2Pdxy   2Pdyz   2Pdz2   2Pdxz   2Pdx2-y2
   1  4.001   0.547   0.481   0.706   0.706   0.706   0.201   0.201   0.201
              0.060   0.060   0.036   0.060   0.036
   2  3.999   0.545   0.480   0.707   0.707   0.707   0.201   0.201   0.201
              0.060   0.060   0.036   0.060   0.036

mulliken: Qtot =        8.000
 DHSCF
 DHSCF
 DHSCF
 DHSCF
 DHSCF
 DHSCF
 DHSCF
 DHSCF
 DHSCF
 DHSCF
 DHSCF

coxmol: Writing XMOL coordinates into file Solid.xyz                                                           

siesta: Program's energy decomposition (eV):
siesta: Ebs     =      -133.496590
siesta: Eions   =       511.194752
siesta: Ena     =       109.726373
siesta: Ekin    =       223.411558
siesta: Enl     =       -27.676266
siesta: Eso     =         0.000000
siesta: Eldau   =         0.000000
siesta: DEna    =        -9.727096
siesta: DUscf   =         0.873266
siesta: DUext   =         0.000000
siesta: Enegf   =         0.000000
siesta: Exc     =       -96.421146
siesta: Dxc     =        29.646413
siesta: Enascf  =      -211.916612
siesta: eta*DQ  =         0.000000
siesta: Emadel  =         0.000000
siesta: Emeta   =         0.000000
siesta: Emolmec =         0.000000
siesta: Ekinion =         0.000000
siesta: Eharris =      -311.008064
siesta: Etot    =      -311.008064
siesta: FreeEng =      -311.008064
siesta: Uatm    =        17.290234
siesta: Enaatm  =      -202.189516

siesta: Final energy (eV):
siesta:  Band Struct. =  -133.4965902738
siesta:       Kinetic =   223.4115578572
siesta:       Hartree =    25.1692572134
siesta:       Eldau   =     0.0000000000
siesta:       Eso     =     0.0000000000
siesta:    Ext. field =     0.0000000000
siesta:       Enegf   =     0.0000000000
siesta:   Exch.-corr. =   -96.4211463766
siesta:  Ion-electron =  -281.1791030786
siesta:       Ion-ion =  -181.9886298641
siesta:       Ekinion =     0.0000000000
siesta:         Total =  -311.0080642487
siesta:         Fermi =      -5.370481

siesta: Stress tensor (static) (eV/Ang**3):
siesta:     0.001212    0.000000    0.000000
siesta:     0.000000    0.001212    0.000000
siesta:     0.000000    0.000000    0.001212

siesta: Cell volume =         11.103517 Ang**3

siesta: Pressure (static):
siesta:                Solid            Molecule  Units
siesta:          -0.00001320         -0.00001320  Ry/Bohr**3
siesta:          -0.00121213         -0.00121189  eV/Ang**3
siesta:          -1.94206861         -1.94167975  kBar
(Free)E+ p_basis*V_orbitals  =        -309.665034
(Free)Eharris+ p_basis*V_orbitals  =        -309.665034
 DHSCF
Bader Analysis core-charge setup. Radii (standard, H):  2.480 0.600
>> End of run:   2-JUN-2025  14:13:07
Job completed
